ITEM: TIMESTEP
20
ITEM: NUMBER OF ATOMS
2000
ITEM: BOX BOUNDS pp pp pp
-4.0301125597004273e-03 2.8704030112559703e+01
-4.0301125597004273e-03 2.8704030112559703e+01
-4.0301125597004273e-03 2.8704030112559703e+01
ITEM: ATOMS id type xs ys zs
1 1 0.0034406 0.00649927 0.00300494
2 3 0.0556986 0.0461763 0.0539256
23 1 0.0970042 0.100758 0.00492366
223 1 0.105925 0.099365 0.10139
4 2 0.150229 0.0524612 0.0534427
6 3 0.250569 0.0499167 0.0603675
225 1 0.199981 0.100299 0.103101
8 5 0.348306 0.0470745 0.0473818
27 1 0.296105 0.0975535 0.00136712
29 5 0.40493 0.0935748 0.00621999
227 1 0.300341 0.0998499 0.0975613
229 6 0.39875 0.10002 0.100918
10 4 0.451271 0.0538611 0.0464095
11 2 0.493157 0.00120888 0.000933697
12 3 0.55065 0.0467739 0.0480893
31 2 0.504381 0.098398 0.000264579
211 6 0.49291 0.00230465 0.105304
231 5 0.498631 0.0938169 0.0999055
14 5 0.647231 0.0467148 0.0521051
15 1 0.702582 0.00299162 0.00262842
35 3 0.698996 0.101675 0.00897322
213 2 0.594965 0.000659555 0.106014
233 6 0.599751 0.102562 0.105488
235 2 0.694815 0.0988748 0.102568
16 1 0.749039 0.0522088 0.0505953
17 1 0.799732 0.0013238 0.00264312
18 5 0.85237 0.0509503 0.0509402
37 2 0.804254 0.10361 0.0013169
217 1 0.801905 0.00237797 0.0999461
237 3 0.794748 0.0966456 0.100196
201 1 0.996713 0.00078482 0.0964618
221 5 0.996987 0.0978533 0.101415
20 2 0.946599 0.0532894 0.0520995
219 1 0.902133 0.00104008 0.099311
239 4 0.895613 0.0986746 0.0979331
22 1 0.0444422 0.151665 0.0529515
42 5 0.0477257 0.251485 0.0458737
43 4 0.100083 0.207151 0.0059396
243 6 0.0931466 0.200069 0.102591
24 3 0.153058 0.149162 0.0533217
26 1 0.246763 0.150045 0.0481836
44 6 0.149137 0.247927 0.0482997
46 6 0.251043 0.247214 0.0517038
245 1 0.200648 0.20095 0.106057
28 1 0.352099 0.146887 0.0452053
48 5 0.35001 0.2524 0.0468082
49 1 0.398545 0.203036 0.00123213
247 6 0.299637 0.193531 0.0956464
249 1 0.399025 0.20187 0.10189
30 6 0.451137 0.154811 0.0513302
32 1 0.548573 0.149264 0.0535327
50 1 0.446771 0.253024 0.0515628
51 1 0.501021 0.205986 0.000686823
52 3 0.551968 0.249873 0.0475251
251 1 0.502179 0.206163 0.0969027
34 1 0.649107 0.150339 0.0513052
53 4 0.602021 0.197874 0.00316994
54 5 0.653744 0.246793 0.0508971
253 1 0.600726 0.203903 0.0986621
255 4 0.695217 0.199614 0.0963232
36 5 0.74897 0.15279 0.0551105
38 5 0.853557 0.143296 0.0506822
56 1 0.752477 0.249791 0.0510403
57 5 0.802183 0.199896 0.000930579
58 1 0.852052 0.251945 0.0490791
257 3 0.800678 0.204568 0.0985358
241 3 0.995892 0.203131 0.0986051
40 1 0.949136 0.149461 0.0529955
59 1 0.899773 0.198591 0.00336178
60 5 0.945377 0.254728 0.0493966
259 1 0.899612 0.200418 0.0980014
62 1 0.0467059 0.346208 0.0484656
83 1 0.102243 0.394002 0.000598791
263 1 0.0991368 0.29876 0.0978383
283 6 0.10092 0.401397 0.0929939
64 5 0.153448 0.345876 0.0476518
66 3 0.250344 0.342719 0.0582718
265 1 0.200843 0.298654 0.101681
285 1 0.199354 0.400589 0.0980649
67 1 0.295623 0.30298 0.00428905
68 1 0.353229 0.348193 0.0513723
69 5 0.399841 0.294892 9.15265e-05
267 1 0.300686 0.298049 0.101237
269 1 0.396526 0.295678 0.105298
287 1 0.294763 0.396192 0.101143
289 5 0.401592 0.399643 0.10112
70 6 0.45189 0.347176 0.051377
72 1 0.542702 0.352197 0.0488392
271 2 0.50413 0.296271 0.103305
291 1 0.504442 0.402856 0.10265
73 1 0.600685 0.301708 0.00359276
74 2 0.655037 0.345289 0.0514394
93 6 0.598642 0.394232 0.00433571
273 1 0.598088 0.298363 0.0984998
275 3 0.703577 0.296883 0.101262
293 1 0.597559 0.396238 0.10167
295 1 0.701007 0.396339 0.0988838
76 5 0.749103 0.34786 0.0488817
78 4 0.852936 0.350287 0.0469113
277 1 0.803187 0.300257 0.0993527
297 6 0.796791 0.399686 0.101146
261 1 0.999367 0.299164 0.0986133
281 6 0.998326 0.395056 0.100214
80 1 0.947233 0.349038 0.0504722
279 4 0.89894 0.289777 0.0992546
299 3 0.9004 0.398793 0.0975625
82 4 0.0541656 0.450902 0.0486045
102 1 0.0516522 0.550564 0.0471948
103 3 0.107257 0.500979 0.00469876
301 2 0.00569583 0.502912 0.100262
303 1 0.0986839 0.497624 0.10077
84 1 0.152618 0.453256 0.0461588
86 1 0.251197 0.445878 0.0434595
104 6 0.154486 0.554201 0.0591157
105 1 0.20112 0.505292 0.00209648
106 3 0.250114 0.546408 0.054433
305 1 0.204648 0.497052 0.100901
88 6 0.347812 0.445689 0.051307
108 6 0.3471 0.551153 0.0517516
109 1 0.400612 0.50087 0.00118508
307 2 0.296982 0.49719 0.101745
309 6 0.400752 0.498732 0.0979721
90 6 0.45018 0.450306 0.0508134
92 6 0.556882 0.446812 0.0470073
110 2 0.45747 0.549747 0.0478588
111 5 0.503228 0.503121 0.00124594
112 4 0.554304 0.556269 0.0490996
311 4 0.503555 0.501966 0.1015
94 1 0.650615 0.452236 0.0534751
114 5 0.654987 0.549226 0.0493849
313 5 0.602464 0.503433 0.100526
315 5 0.698671 0.503 0.104812
96 1 0.745522 0.452973 0.0475275
98 2 0.851899 0.446486 0.0438803
116 6 0.748223 0.554448 0.0508051
117 6 0.800514 0.502803 0.00117077
118 5 0.847312 0.557175 0.0527608
317 1 0.802782 0.498278 0.0982531
316 2 0.750986 0.555243 0.141795
100 1 0.949434 0.44936 0.0486255
120 1 0.953855 0.548299 0.0484224
319 6 0.899833 0.501823 0.0955916
122 1 0.0553125 0.650012 0.0515316
141 6 0.00260887 0.696799 0.00256268
321 1 0.00148502 0.603561 0.09796
323 1 0.100539 0.600173 0.103471
343 5 0.105908 0.6973 0.101866
124 3 0.153034 0.656321 0.0430079
125 1 0.204996 0.598458 0.00199575
126 1 0.249607 0.653371 0.0507016
325 6 0.197922 0.604179 0.103708
345 1 0.199243 0.700734 0.0998643
127 6 0.299609 0.60056 0.00107169
128 6 0.353761 0.645628 0.0508737
129 4 0.404354 0.602479 0.00381119
147 3 0.298389 0.698442 0.00123307
327 1 0.300414 0.60168 0.101726
329 1 0.40377 0.594566 0.101554
347 1 0.300807 0.702407 0.0973803
349 5 0.400847 0.702248 0.102835
130 5 0.447287 0.645945 0.0497027
132 4 0.552855 0.64721 0.0526678
151 1 0.498619 0.696219 0.00429099
331 1 0.49932 0.599475 0.101296
351 6 0.499491 0.700158 0.0988526
133 6 0.596659 0.604488 0.00235862
134 1 0.647091 0.651544 0.050496
135 4 0.697162 0.594575 0.00727513
155 4 0.698458 0.696689 0.000600564
333 3 0.602 0.599466 0.10053
335 1 0.694243 0.603172 0.100549
353 1 0.601555 0.700004 0.10472
355 6 0.698939 0.698399 0.0990151
136 1 0.748639 0.646936 0.0482129
138 1 0.848087 0.653272 0.0477953
157 3 0.797066 0.703411 0.00709298
337 3 0.802128 0.611719 0.101275
357 1 0.799007 0.700049 0.0994554
121 4 0.995258 0.597312 0.00200823
341 1 0.995335 0.6977 0.0986911
140 5 0.946397 0.645556 0.0519522
159 3 0.900096 0.700586 0.00491251
339 4 0.902101 0.600242 0.0898002
359 1 0.902895 0.699979 0.0998023
142 6 0.0529367 0.747272 0.0531334
161 3 0.00299341 0.807031 0.00171762
162 1 0.0488906 0.852786 0.0499302
163 4 0.0992502 0.800831 0.00332684
361 6 0.00748694 0.79515 0.0973075
363 1 0.100658 0.803472 0.101157
144 1 0.148119 0.750286 0.0518825
146 1 0.24811 0.747528 0.0473789
164 1 0.149489 0.851948 0.0506071
166 2 0.249389 0.855014 0.0498627
365 1 0.203702 0.800742 0.0976869
148 5 0.352088 0.746012 0.0463812
167 1 0.301879 0.800716 0.00216304
168 1 0.354335 0.854879 0.0492156
169 3 0.39962 0.802437 0.00417656
367 6 0.3009 0.797143 0.0973417
369 1 0.3969 0.795788 0.0959551
368 1 0.348719 0.852552 0.142529
150 1 0.448988 0.750973 0.0476944
152 1 0.549761 0.747893 0.0476933
170 4 0.456467 0.850984 0.0539654
172 1 0.546239 0.847981 0.0520099
371 1 0.498749 0.797491 0.0980324
154 6 0.649312 0.745286 0.0448931
174 6 0.64546 0.846781 0.049288
373 6 0.59772 0.797519 0.0977777
375 5 0.69886 0.794053 0.101364
156 1 0.747569 0.752249 0.048324
158 4 0.852434 0.75411 0.0550428
176 3 0.758143 0.846433 0.052541
178 6 0.84992 0.848194 0.0509293
377 1 0.802787 0.800346 0.101794
160 1 0.949694 0.753062 0.0473009
179 1 0.897202 0.803019 0.00127232
180 1 0.951107 0.851207 0.0469703
379 1 0.900005 0.800414 0.100143
203 2 0.0999809 0.99459 0.101853
182 2 0.0506534 0.948747 0.050198
183 1 0.0995885 0.902273 0.00173006
383 1 0.0979642 0.900661 0.103183
5 6 0.196412 0.998233 0.00384996
205 1 0.20205 0.99882 0.09743
184 1 0.148657 0.948267 0.0514544
186 1 0.250181 0.947718 0.051005
385 4 0.195253 0.902076 0.0973246
7 5 0.300469 0.991061 0.00249225
207 1 0.302917 0.995328 0.10069
209 1 0.4009 0.998444 0.0957929
188 4 0.347774 0.951241 0.0479896
387 4 0.300515 0.903411 0.0986793
389 4 0.402461 0.89383 0.103647
190 3 0.441447 0.949581 0.0506884
192 5 0.55076 0.952127 0.0480476
391 5 0.49729 0.904201 0.09781
215 1 0.698737 0.998772 0.101942
194 6 0.650104 0.94993 0.0503994
195 5 0.70337 0.897329 0.00378805
393 6 0.600068 0.898795 0.100089
395 6 0.701641 0.904795 0.100265
196 4 0.748798 0.949253 0.0479572
198 6 0.850896 0.95215 0.0488812
397 1 0.799846 0.901258 0.0994006
381 1 0.998974 0.899934 0.103261
200 6 0.952142 0.946697 0.0469916
399 1 0.902718 0.899071 0.100201
202 1 0.0492094 0.0493555 0.149601
401 4 0.000403595 0.000744251 0.20744
402 6 0.0460766 0.0478976 0.249121
421 6 0.00145483 0.101602 0.200477
423 3 0.0979041 0.101234 0.193416
204 5 0.152943 0.0452319 0.148085
206 1 0.251486 0.0477894 0.150417
404 4 0.145553 0.0529092 0.249886
405 4 0.202625 0.000480118 0.200619
406 5 0.248422 0.0542039 0.249094
425 5 0.198426 0.0967625 0.197628
424 4 0.15726 0.140916 0.23907
208 6 0.351235 0.0494673 0.147025
407 4 0.297126 0.00177554 0.201791
408 5 0.348661 0.0446059 0.255842
427 4 0.300733 0.0907643 0.201661
429 6 0.399611 0.101482 0.201926
210 4 0.453538 0.050798 0.152464
212 1 0.550132 0.0544718 0.155462
410 2 0.450029 0.0482783 0.256177
411 3 0.503616 0.00616084 0.203041
412 1 0.554314 0.0493524 0.251323
431 2 0.499498 0.0986003 0.208273
214 1 0.650826 0.0499259 0.155263
413 4 0.599313 0.00562749 0.204177
414 1 0.65202 0.0505764 0.249273
433 1 0.605783 0.102829 0.202693
435 5 0.699956 0.109922 0.204643
216 1 0.747021 0.0494557 0.151043
218 3 0.84734 0.0456681 0.154889
416 1 0.745777 0.0541709 0.248777
417 1 0.799058 0.00193399 0.204404
418 4 0.848868 0.0554773 0.252343
437 1 0.796613 0.101674 0.199274
220 1 0.950004 0.0497371 0.151475
419 2 0.902611 0.00394835 0.206643
420 5 0.947296 0.0508596 0.247539
439 4 0.905164 0.0928691 0.200088
222 1 0.0472918 0.149289 0.148192
242 1 0.040878 0.246223 0.152149
422 1 0.0572094 0.147338 0.247194
442 1 0.0518179 0.248721 0.250079
443 4 0.100908 0.204501 0.199261
444 4 0.138154 0.25649 0.261163
224 1 0.149006 0.151919 0.150809
226 1 0.251451 0.14761 0.154355
244 3 0.151382 0.253117 0.145652
246 3 0.251559 0.252618 0.147943
426 1 0.250153 0.146621 0.250525
445 6 0.196613 0.197641 0.204992
446 5 0.252071 0.248006 0.252893
228 1 0.348255 0.149763 0.15126
248 5 0.345295 0.250761 0.153292
428 6 0.351353 0.152015 0.250803
447 5 0.297829 0.202691 0.200891
448 2 0.347957 0.247494 0.253144
449 1 0.400857 0.204003 0.197943
230 1 0.452436 0.148965 0.150416
232 6 0.550125 0.152461 0.150784
250 2 0.452851 0.249068 0.147451
252 1 0.551108 0.247822 0.152467
430 1 0.447989 0.153824 0.249802
432 3 0.55336 0.150868 0.24571
450 4 0.451913 0.253405 0.253239
451 5 0.495071 0.206325 0.202263
452 2 0.550277 0.246069 0.243234
234 5 0.652246 0.155484 0.151451
254 4 0.647892 0.255808 0.15255
434 5 0.649148 0.156494 0.252022
453 5 0.607798 0.205886 0.199377
454 1 0.651738 0.250686 0.252366
455 1 0.701099 0.201675 0.200403
236 5 0.745873 0.151379 0.146531
238 6 0.855787 0.146055 0.151725
256 1 0.748981 0.253111 0.148382
258 5 0.855068 0.254926 0.152888
436 4 0.751132 0.146906 0.254636
438 1 0.84858 0.150882 0.243275
456 4 0.744334 0.250537 0.245602
457 1 0.79692 0.202558 0.199476
458 5 0.852346 0.249978 0.24278
441 1 0.998598 0.194374 0.204439
240 4 0.950274 0.153173 0.148894
260 1 0.947435 0.249863 0.151342
440 5 0.94406 0.150161 0.253696
459 5 0.904957 0.198412 0.203807
460 1 0.952845 0.247622 0.249836
262 4 0.0481175 0.354226 0.15072
462 6 0.0466477 0.344102 0.250541
463 6 0.0935094 0.303029 0.193456
481 5 0.000567999 0.399098 0.19879
483 5 0.0961735 0.397956 0.200272
264 6 0.148482 0.350761 0.146924
266 1 0.250161 0.348728 0.15137
464 3 0.145872 0.355082 0.252871
465 6 0.200891 0.303706 0.206706
466 1 0.254449 0.353294 0.250827
485 5 0.203253 0.40045 0.201802
268 6 0.347612 0.347647 0.151968
467 1 0.300006 0.299906 0.203717
468 1 0.353346 0.353369 0.247296
469 6 0.4011 0.299139 0.202012
487 4 0.301228 0.398527 0.197512
489 4 0.406893 0.403316 0.202488
270 1 0.452142 0.350559 0.146345
272 4 0.554271 0.34198 0.149634
470 4 0.450363 0.341866 0.246682
471 5 0.500033 0.303751 0.199953
472 5 0.546769 0.3518 0.248437
491 1 0.502129 0.400546 0.197385
274 4 0.648063 0.344402 0.150811
473 5 0.598419 0.297591 0.200384
474 6 0.651346 0.349654 0.252571
475 5 0.699948 0.295579 0.201527
493 3 0.596945 0.399075 0.201405
495 1 0.703801 0.397927 0.20083
276 1 0.749747 0.343352 0.151188
278 1 0.852482 0.350414 0.147148
476 4 0.749597 0.347342 0.245984
477 4 0.806115 0.29349 0.196594
478 6 0.847085 0.350418 0.247305
497 1 0.796991 0.401209 0.198081
461 4 0.99909 0.294246 0.199732
280 6 0.947899 0.341365 0.154309
479 4 0.901448 0.297537 0.203289
480 1 0.949705 0.351363 0.250643
499 6 0.901267 0.398529 0.197088
282 3 0.0524123 0.454007 0.152916
302 1 0.0485049 0.554976 0.15054
482 5 0.0527251 0.446349 0.25045
502 6 0.0467918 0.550816 0.251929
503 1 0.0961391 0.500787 0.199512
284 5 0.150898 0.451343 0.153021
286 3 0.250875 0.446437 0.146671
304 1 0.149552 0.546573 0.150648
306 5 0.251888 0.548835 0.1519
484 6 0.150009 0.450517 0.251753
486 4 0.255838 0.449765 0.249642
504 6 0.151094 0.548136 0.250661
505 5 0.20428 0.496233 0.196728
506 1 0.247879 0.548373 0.243804
288 1 0.350484 0.445741 0.148803
308 5 0.347464 0.549059 0.148793
488 5 0.35227 0.444128 0.243668
507 5 0.302832 0.500151 0.19868
508 2 0.355252 0.55175 0.245687
509 1 0.399274 0.500326 0.197675
290 1 0.452352 0.451771 0.14931
292 5 0.548457 0.455652 0.14809
310 4 0.452211 0.552597 0.155089
312 1 0.551613 0.549713 0.149813
490 1 0.449653 0.449145 0.247395
492 1 0.550556 0.451053 0.250174
510 1 0.449151 0.54815 0.251291
511 1 0.499913 0.502233 0.201908
512 1 0.547796 0.55253 0.253331
294 6 0.650541 0.445448 0.151445
314 1 0.64816 0.550492 0.154689
494 6 0.649338 0.453712 0.250078
513 1 0.596352 0.502858 0.203213
514 1 0.65427 0.549762 0.247986
515 5 0.70587 0.504108 0.197009
296 2 0.742523 0.451861 0.14745
298 1 0.852768 0.448184 0.146853
318 3 0.851419 0.552254 0.150324
496 5 0.746986 0.449768 0.250229
498 5 0.850027 0.448171 0.248735
516 1 0.7484 0.554391 0.250452
517 6 0.797989 0.499187 0.195293
518 1 0.849113 0.552385 0.247865
501 5 0.997668 0.504022 0.196689
300 2 0.949563 0.451246 0.1474
320 1 0.950228 0.552198 0.145521
500 6 0.950526 0.451502 0.251009
519 6 0.902627 0.501846 0.203284
520 4 0.942233 0.551497 0.249021
322 1 0.0512828 0.651004 0.151025
522 1 0.0478071 0.647694 0.243265
523 4 0.102058 0.604101 0.201716
543 1 0.100702 0.703001 0.202296
324 1 0.148848 0.650369 0.154865
326 6 0.248046 0.647666 0.148632
524 5 0.14793 0.650361 0.247769
525 1 0.19902 0.598265 0.198934
526 6 0.24881 0.649293 0.250026
545 1 0.19731 0.702947 0.200093
328 4 0.348352 0.662607 0.150745
527 1 0.301823 0.598594 0.198736
528 6 0.347412 0.651303 0.248395
529 1 0.399869 0.602418 0.198194
547 5 0.300628 0.704487 0.197428
549 1 0.402094 0.698807 0.199603
330 1 0.450237 0.648833 0.148995
332 3 0.549869 0.645901 0.153355
530 5 0.449973 0.649318 0.253003
531 1 0.497793 0.600328 0.200702
532 1 0.55308 0.648145 0.249311
551 6 0.498627 0.70225 0.200064
334 5 0.648517 0.647191 0.156277
533 5 0.600491 0.596773 0.203585
534 4 0.648544 0.645101 0.249753
535 4 0.699332 0.60358 0.190859
553 4 0.597109 0.703674 0.20463
555 1 0.698027 0.700957 0.196833
336 1 0.749976 0.649136 0.151092
338 1 0.855465 0.647106 0.150482
536 6 0.745804 0.64685 0.241786
537 4 0.79487 0.602757 0.201673
538 1 0.856829 0.649845 0.249002
557 6 0.804227 0.69759 0.198852
521 5 0.995147 0.599059 0.197307
541 1 0.998214 0.701789 0.198987
340 3 0.948991 0.652791 0.148339
539 5 0.902777 0.597352 0.199454
540 6 0.951429 0.650633 0.252582
559 1 0.902876 0.702316 0.196851
342 1 0.0535065 0.745463 0.148229
362 1 0.0497405 0.848795 0.150741
542 1 0.0495859 0.751495 0.247208
561 4 0.000366884 0.8003 0.19751
562 1 0.0475417 0.853578 0.248323
563 1 0.0984163 0.800935 0.199726
344 3 0.150195 0.750813 0.149138
346 1 0.250161 0.748998 0.147248
364 1 0.153269 0.849292 0.153246
366 3 0.246219 0.855071 0.144889
544 1 0.148622 0.755351 0.250765
546 5 0.254889 0.748454 0.248456
564 3 0.146939 0.845476 0.24991
565 5 0.201386 0.795322 0.199803
566 3 0.249086 0.851717 0.252598
348 1 0.353189 0.7516 0.150874
548 6 0.352403 0.751848 0.251933
567 6 0.301836 0.802695 0.196356
568 5 0.351266 0.850847 0.251993
569 1 0.400804 0.803834 0.200962
350 1 0.448928 0.75256 0.150029
352 1 0.54848 0.750963 0.149032
370 5 0.446757 0.847974 0.145865
372 3 0.544125 0.84594 0.155483
550 6 0.448934 0.751046 0.250615
552 5 0.552157 0.751181 0.249302
570 2 0.449473 0.852029 0.256352
571 1 0.497449 0.802641 0.200667
572 1 0.550718 0.848888 0.250388
354 3 0.650575 0.753307 0.160287
374 5 0.653994 0.85154 0.154413
554 1 0.647686 0.748151 0.247291
573 1 0.600285 0.801956 0.197892
574 1 0.65156 0.850307 0.253335
575 1 0.699158 0.801091 0.202492
356 4 0.750516 0.758523 0.144145
358 1 0.851163 0.748704 0.150148
378 5 0.85148 0.852106 0.147003
556 1 0.752237 0.750488 0.243972
558 6 0.853444 0.750912 0.249773
576 6 0.751647 0.846205 0.253236
577 3 0.801438 0.800822 0.193961
578 1 0.846681 0.84454 0.254988
360 1 0.95101 0.752947 0.148898
380 3 0.948459 0.844748 0.145023
560 1 0.946141 0.752766 0.250636
579 1 0.901156 0.804079 0.197198
580 4 0.950019 0.850204 0.247827
403 1 0.0992229 0.999934 0.197838
382 2 0.0440817 0.958056 0.146798
581 4 0.000226567 0.899265 0.195087
582 1 0.0491244 0.956609 0.254484
583 6 0.0965005 0.90376 0.197694
384 1 0.151475 0.951243 0.149329
386 2 0.250654 0.950509 0.146099
584 1 0.14665 0.957351 0.250886
585 6 0.199485 0.908057 0.205963
586 4 0.257769 0.950874 0.260486
409 3 0.39895 0.997277 0.207733
388 4 0.356242 0.952138 0.152637
587 1 0.298735 0.89747 0.202397
588 1 0.348848 0.950467 0.251325
589 6 0.399392 0.899926 0.197682
390 4 0.447978 0.955268 0.150777
392 3 0.545356 0.945893 0.158369
590 1 0.451429 0.95508 0.248094
591 1 0.494972 0.895529 0.197997
592 1 0.54921 0.951898 0.246943
415 4 0.7036 0.999165 0.200131
394 3 0.649526 0.957809 0.15601
593 3 0.602687 0.895272 0.209054
594 1 0.648923 0.954703 0.244866
595 4 0.699092 0.89599 0.195652
376 6 0.743759 0.858901 0.148286
396 1 0.753969 0.951262 0.150843
398 6 0.850046 0.951112 0.151124
596 2 0.750723 0.948132 0.249258
597 1 0.801535 0.90011 0.201273
598 3 0.847997 0.95575 0.247295
400 1 0.949415 0.952956 0.152083
599 6 0.90235 0.898962 0.204557
600 1 0.956087 0.947471 0.249693
602 1 0.0519808 0.0450737 0.34634
603 3 0.103426 0.00130886 0.301829
623 4 0.0983601 0.104316 0.301242
803 1 0.104387 0.00160988 0.405685
821 6 0.000638136 0.0981465 0.39695
823 6 0.103449 0.0948032 0.398951
604 2 0.154022 0.0455083 0.348926
605 1 0.202452 0.000915468 0.2961
606 2 0.248375 0.0486425 0.348871
625 4 0.197686 0.0978998 0.300557
825 1 0.198 0.101135 0.397902
607 5 0.295694 0.000922456 0.301561
608 1 0.352335 0.0486325 0.34973
609 4 0.402327 0.00111642 0.304517
627 1 0.3011 0.0979584 0.301209
629 1 0.400383 0.101074 0.298568
807 1 0.301324 0.00019379 0.399056
809 4 0.40152 0.00151291 0.393845
827 3 0.300073 0.0966931 0.392276
829 1 0.398922 0.0992385 0.398661
610 5 0.449467 0.0519964 0.35038
611 5 0.503545 0.00207408 0.303927
612 1 0.552645 0.0560092 0.350583
631 1 0.502225 0.101687 0.297626
811 6 0.500401 0.00206975 0.401584
831 4 0.489546 0.0988345 0.394681
613 1 0.600655 0.00227952 0.303353
614 4 0.654615 0.0537873 0.349512
615 5 0.696347 0.00342731 0.298878
633 3 0.599327 0.0941265 0.298481
635 1 0.701595 0.103341 0.304241
813 1 0.597388 0.000400437 0.398416
815 3 0.691887 0.00234676 0.402368
833 1 0.602234 0.100882 0.400071
835 5 0.698588 0.10214 0.400157
616 1 0.74609 0.0489044 0.354735
617 6 0.795565 0.00647904 0.301428
618 1 0.850156 0.0546984 0.349905
637 1 0.798025 0.0988508 0.298595
817 1 0.803338 0.00385086 0.399773
837 1 0.795906 0.0972 0.40307
601 1 0.992937 0.00242309 0.302241
621 1 0.999404 0.0993196 0.297855
801 2 0.991799 0.0018957 0.391107
620 3 0.941264 0.0540825 0.344245
639 5 0.889523 0.104809 0.296227
839 4 0.901417 0.108451 0.408639
622 5 0.0526771 0.146176 0.347471
641 1 0.0048885 0.197377 0.300202
642 2 0.0512108 0.250495 0.354627
643 6 0.102327 0.200048 0.297821
841 1 0.00395096 0.198574 0.399172
843 1 0.101116 0.197147 0.39665
624 5 0.151685 0.149908 0.344424
626 2 0.249632 0.147367 0.345754
644 1 0.152242 0.248953 0.349362
645 1 0.199265 0.20085 0.29891
646 1 0.252876 0.251824 0.35125
845 1 0.199998 0.200178 0.396859
628 3 0.351904 0.149011 0.350072
647 3 0.296486 0.202245 0.306047
648 1 0.349515 0.251928 0.344332
649 1 0.403887 0.201007 0.301746
847 1 0.303395 0.199851 0.397869
849 2 0.399482 0.203515 0.394939
630 1 0.4519 0.14889 0.351434
632 4 0.556063 0.149301 0.353748
650 1 0.453127 0.250602 0.349519
651 6 0.500249 0.199355 0.302348
652 1 0.551677 0.246535 0.356964
851 1 0.502965 0.197243 0.399531
634 2 0.645508 0.150053 0.348088
653 1 0.595448 0.201293 0.300643
654 3 0.646177 0.246168 0.351747
655 5 0.707538 0.196906 0.292948
853 5 0.597786 0.194141 0.405547
855 3 0.700992 0.196789 0.395215
636 2 0.758824 0.150679 0.350199
638 1 0.848031 0.150475 0.356049
656 3 0.753533 0.252712 0.346156
657 3 0.803929 0.197123 0.294429
658 1 0.84461 0.248607 0.350612
857 2 0.796747 0.201718 0.401615
640 1 0.943505 0.147988 0.345206
659 1 0.894661 0.202444 0.297092
660 2 0.952247 0.239951 0.348585
859 1 0.901464 0.201154 0.400229
661 6 1.38159e-06 0.300653 0.301036
662 1 0.0509391 0.352161 0.35194
663 5 0.099432 0.297712 0.302904
683 4 0.0941026 0.40933 0.298732
863 2 0.105154 0.302438 0.390633
883 5 0.104599 0.400105 0.400033
664 2 0.147331 0.356115 0.346154
665 6 0.203608 0.301875 0.30208
666 1 0.253487 0.354093 0.351185
685 2 0.200122 0.397539 0.29811
865 1 0.19716 0.301114 0.394067
885 5 0.195766 0.401035 0.39745
667 1 0.301613 0.304487 0.297583
668 4 0.350488 0.348073 0.344313
669 1 0.399267 0.297842 0.295571
687 5 0.306744 0.398587 0.298
689 1 0.402281 0.39986 0.299221
867 4 0.304925 0.296636 0.399953
869 1 0.40148 0.294261 0.399547
887 2 0.305832 0.398913 0.399116
889 3 0.40078 0.398158 0.399518
670 6 0.451406 0.34317 0.348759
671 2 0.507315 0.296224 0.29725
672 5 0.544782 0.351027 0.351169
691 3 0.497467 0.404504 0.290919
871 1 0.503173 0.298554 0.400755
891 5 0.501685 0.403086 0.400183
673 6 0.597153 0.299686 0.298649
674 5 0.645608 0.351359 0.351407
675 6 0.701472 0.306638 0.298605
693 1 0.598529 0.401835 0.300941
695 1 0.697209 0.401897 0.303795
873 5 0.594981 0.302578 0.404177
875 1 0.699853 0.300642 0.397287
893 3 0.599484 0.399315 0.404699
895 1 0.695419 0.398953 0.39773
676 1 0.755615 0.354352 0.350339
677 1 0.798613 0.296899 0.29566
678 6 0.852439 0.345297 0.348203
697 1 0.799295 0.40172 0.297863
877 4 0.799434 0.299433 0.396029
897 3 0.803832 0.40102 0.40221
681 5 0.999289 0.401197 0.303482
861 1 0.995363 0.297431 0.395867
881 1 0.996661 0.398412 0.399788
679 6 0.900079 0.295664 0.30255
680 1 0.94765 0.350835 0.35293
699 6 0.899596 0.4022 0.304914
879 1 0.901069 0.293015 0.398669
899 5 0.902856 0.405722 0.403454
682 1 0.0518452 0.448004 0.353229
701 6 0.00365427 0.502751 0.300556
702 4 0.0466562 0.547396 0.347968
703 3 0.0974883 0.496352 0.308335
903 6 0.101674 0.497867 0.404553
684 1 0.152937 0.453851 0.348763
686 6 0.252172 0.450292 0.346412
704 1 0.148785 0.545828 0.348865
705 1 0.205826 0.502907 0.298702
706 5 0.252248 0.546377 0.351363
905 3 0.197179 0.498005 0.40745
688 5 0.347443 0.448252 0.348664
707 6 0.300727 0.500375 0.293882
708 6 0.350044 0.547523 0.348758
709 1 0.400631 0.496227 0.298722
907 6 0.298186 0.496981 0.403811
909 6 0.401917 0.498631 0.399165
690 4 0.452127 0.444545 0.351805
692 3 0.549423 0.454769 0.34922
710 5 0.449945 0.551877 0.346488
711 1 0.499685 0.495367 0.301703
712 6 0.550136 0.552635 0.345588
911 4 0.50152 0.511973 0.395334
694 5 0.64733 0.453498 0.351373
713 4 0.600046 0.502553 0.301939
714 5 0.648818 0.542637 0.341862
715 1 0.704558 0.498355 0.302079
913 2 0.598406 0.50526 0.398905
915 3 0.699712 0.501192 0.410582
696 3 0.74748 0.44501 0.349497
698 1 0.848289 0.450726 0.354982
716 3 0.74632 0.549968 0.346412
717 1 0.799584 0.4978 0.3017
718 1 0.849349 0.550898 0.35159
917 2 0.798152 0.501348 0.401546
901 3 0.998951 0.495886 0.3954
700 1 0.950055 0.454269 0.352108
719 5 0.896488 0.502644 0.30146
720 1 0.950892 0.549141 0.354566
919 1 0.897931 0.499989 0.40049
722 3 0.049374 0.648462 0.352346
723 1 0.0993559 0.602524 0.301459
741 6 0.0001548 0.70031 0.294381
743 4 0.101235 0.693542 0.28998
921 2 0.001513 0.600591 0.40098
923 6 0.0959694 0.587213 0.404243
943 5 0.106156 0.69829 0.400026
724 3 0.146982 0.645535 0.349259
725 1 0.198736 0.59884 0.300152
726 1 0.247203 0.651308 0.349965
745 6 0.199986 0.702503 0.301466
925 6 0.200518 0.600013 0.403007
945 4 0.195426 0.703249 0.403537
727 1 0.298348 0.597044 0.299382
728 2 0.352927 0.652403 0.346153
729 1 0.398159 0.600817 0.298565
747 5 0.297157 0.701735 0.304778
749 1 0.402181 0.700299 0.30127
927 6 0.298932 0.602604 0.395941
929 2 0.398147 0.605436 0.398222
947 1 0.304545 0.694949 0.400991
949 1 0.397971 0.702281 0.396039
730 1 0.453867 0.652041 0.349845
731 5 0.494165 0.602771 0.294501
732 1 0.545972 0.649164 0.346195
751 4 0.506636 0.702232 0.292539
931 1 0.499751 0.600326 0.401285
951 4 0.500059 0.700463 0.403561
733 1 0.607529 0.602817 0.300119
734 2 0.655735 0.652763 0.358401
735 1 0.698627 0.600817 0.301251
753 1 0.603238 0.697002 0.301793
755 6 0.698503 0.695337 0.292849
933 6 0.600454 0.591173 0.392436
935 1 0.696637 0.589843 0.395552
953 6 0.596812 0.702426 0.396984
955 2 0.701534 0.703139 0.400397
736 2 0.746299 0.649857 0.35564
737 6 0.803138 0.602284 0.298052
738 6 0.849561 0.646229 0.348158
757 6 0.800765 0.698098 0.300398
937 1 0.799006 0.599408 0.399211
957 1 0.802736 0.700088 0.396136
721 1 0.999021 0.599776 0.302704
941 3 0.994817 0.704863 0.398309
739 1 0.901588 0.596539 0.302335
740 5 0.950812 0.645216 0.35446
759 3 0.903674 0.704425 0.307277
939 1 0.896172 0.600798 0.401546
959 1 0.900379 0.694842 0.400239
742 4 0.0521713 0.749343 0.352986
761 6 5.24864e-05 0.803352 0.297421
762 6 0.0442717 0.846544 0.342768
763 4 0.094111 0.801804 0.29794
963 1 0.101554 0.800814 0.395835
744 4 0.141613 0.747322 0.350976
746 1 0.250085 0.748369 0.359285
764 2 0.150281 0.848868 0.345537
765 6 0.204099 0.793939 0.305624
766 1 0.25221 0.849338 0.351501
965 1 0.196161 0.801081 0.398482
748 2 0.345469 0.748567 0.348142
767 1 0.300147 0.801325 0.300332
768 1 0.350565 0.855682 0.354643
769 1 0.401156 0.800734 0.303814
967 5 0.304015 0.798774 0.395946
969 6 0.400346 0.798612 0.400407
750 4 0.454277 0.749506 0.345517
752 1 0.548011 0.748772 0.344973
770 5 0.453931 0.853613 0.349218
771 1 0.49819 0.79885 0.299101
772 6 0.550329 0.850217 0.343343
971 2 0.502599 0.79858 0.398402
754 1 0.649966 0.75128 0.352333
773 1 0.600772 0.796833 0.29962
774 6 0.651237 0.848522 0.348031
775 1 0.701571 0.794136 0.297761
973 1 0.596587 0.799983 0.400584
975 5 0.705307 0.798082 0.400431
756 5 0.745191 0.745396 0.352794
776 1 0.750752 0.853663 0.348993
777 1 0.797442 0.79299 0.306411
778 1 0.851046 0.849243 0.351074
977 6 0.802378 0.795501 0.400315
961 1 0.998959 0.803062 0.40244
758 1 0.857473 0.751683 0.351747
760 4 0.947778 0.75903 0.356003
779 4 0.898562 0.8039 0.297676
780 1 0.948123 0.849019 0.345796
979 5 0.903641 0.801678 0.404334
782 1 0.0558275 0.955735 0.354089
783 6 0.0988216 0.904172 0.300799
981 6 0.000797952 0.896161 0.398923
983 3 0.102161 0.900165 0.395428
805 3 0.202617 0.996753 0.401049
784 1 0.154936 0.954002 0.35011
785 4 0.194011 0.904226 0.299294
786 4 0.249217 0.947216 0.352457
985 5 0.201412 0.897118 0.398227
787 6 0.30106 0.901117 0.30477
788 1 0.351081 0.952298 0.350036
789 3 0.398645 0.90462 0.299019
987 1 0.297348 0.903828 0.399952
989 2 0.405956 0.902406 0.399595
790 5 0.451312 0.949509 0.348955
791 2 0.499807 0.905548 0.293629
792 5 0.550532 0.94793 0.346639
991 1 0.502305 0.902291 0.403816
793 2 0.602497 0.904069 0.296041
794 1 0.652857 0.949472 0.351132
795 3 0.693928 0.905697 0.293403
993 3 0.60189 0.90159 0.402128
995 1 0.700752 0.900993 0.40376
796 6 0.750162 0.951861 0.351981
797 5 0.80501 0.90358 0.301782
798 4 0.849184 0.943918 0.353883
997 3 0.796626 0.892335 0.401935
619 1 0.8973 0.997944 0.296001
819 5 0.891981 0.99495 0.390497
781 4 0.999985 0.899823 0.301051
799 1 0.900078 0.900931 0.296502
800 3 0.944405 0.949012 0.340575
999 1 0.905682 0.899956 0.398737
802 1 0.0469572 0.0457503 0.447194
1002 4 0.0500382 0.0489125 0.546845
1023 2 0.101541 0.0983276 0.495193
804 5 0.152539 0.0511601 0.451157
806 5 0.251859 0.0506749 0.44687
1004 3 0.14416 0.0529861 0.559086
1005 6 0.202319 0.00266109 0.504818
1006 6 0.256502 0.0487073 0.552751
1025 3 0.197734 0.101269 0.501232
808 3 0.355839 0.051282 0.449366
1008 1 0.351604 0.0492998 0.547073
1027 1 0.299655 0.0990668 0.497238
1029 5 0.40311 0.105176 0.503454
810 1 0.45008 0.0544541 0.453771
812 1 0.548061 0.0564815 0.449896
1010 1 0.446063 0.0459802 0.547752
1012 1 0.549437 0.0473391 0.550654
1031 2 0.496885 0.101852 0.506981
814 1 0.650477 0.0508992 0.449264
1013 6 0.599449 0.00283698 0.498384
1014 1 0.650672 0.0505435 0.549398
1015 3 0.701053 0.011379 0.500111
1033 1 0.600186 0.0991459 0.50378
1035 1 0.703175 0.0999944 0.499005
816 1 0.74465 0.0439672 0.447225
818 2 0.852751 0.0512039 0.448603
1016 1 0.753119 0.0547349 0.550032
1017 5 0.798371 0.00295042 0.50141
1018 1 0.844686 0.0575678 0.546705
1037 2 0.79413 0.0961298 0.490481
1038 5 0.849196 0.142734 0.550121
1021 6 0.998055 0.0984243 0.49781
820 3 0.943232 0.0446208 0.448406
1019 5 0.893353 0.0016162 0.503584
1020 1 0.948188 0.0491981 0.547051
1039 1 0.904428 0.0983151 0.496188
822 5 0.0527907 0.14893 0.449941
842 5 0.0505263 0.256153 0.445694
1022 1 0.0522933 0.14767 0.544838
1041 3 0.00360074 0.201234 0.496988
1042 3 0.0512391 0.251842 0.551702
1043 1 0.0960657 0.204685 0.494038
824 1 0.151973 0.152607 0.453476
826 6 0.249287 0.151703 0.446488
844 1 0.147199 0.253227 0.446985
846 6 0.252674 0.251979 0.444884
1024 1 0.147124 0.152887 0.545561
1026 6 0.248422 0.152708 0.553527
1044 5 0.146473 0.248705 0.545876